formula,density_g_cm3,name
H2O,1.0,Water
SiO2,2.65,Silica
H2SO4,1.83,Sulfuric acid
NaCl,2.165,Sodium chloride
CaCO3,2.71,Calcium carbonate
Al2O3,3.95,Aluminum oxide
Fe2O3,5.24,Iron(III) oxide
C6H12O6,1.54,Glucose
CH3COOH,1.049,Acetic acid
NH3,0.00073,Ammonia (gas at STP)
Bi,9.747,Bi
Cu,8.96,Cu
H2S,1,H2S